##############################################################################
###               Entry exported from Match! User Database                 ###
##############################################################################
###                           Data published by:                           ###
###                                                                        ###
###               COD (Crystallography Open Database)
##############################################################################
data_2300258
_citation_journal_full    'Journal of Applied Crystallography'
_citation_journal_volume  '42(6)'
_citation_page_first  '1176'
_citation_page_last   '1188'
_citation_year  '2009'
_citation_title  'Neutron powder diffraction in materials with incoherent scattering: an illustration of Rietveld refinement quality from nondeuterated gypsum'
loop_
_publ_author_name
  'Henry Paul F.'
  'Weller Mark T.'
  'Wilson Chick C.'
_chemical_formula_sum  'Ca H4 O6 S'
_chemical_name_common  'Gypsum'
_symmetry_space_group_name_H-M 'C 1 2/c 1'
_space_group_IT_number 15
_space_group_crystal_system 'monoclinic'
loop_
_symmetry_equiv_pos_as_xyz
   'x, y, z'
   'x+0.5, y+0.5, z'
   '-x, y, -z+0.5'
   '-x+0.5, y+0.5, -z+0.5'
   '-x, -y, -z'
   '-x+0.5, -y+0.5, -z'
   'x, -y, z+0.5'
   'x+0.5, -y+0.5, z+0.5'
_cell_length_a        6.2869
_cell_length_b       15.2131
_cell_length_c        6.5300
_cell_angle_alpha    90.000
_cell_angle_beta    127.430
_cell_angle_gamma    90.000
_cell_formula_units_Z 4
loop_
_atom_site_label
_atom_site_fract_x
_atom_site_fract_y
_atom_site_fract_z
_atom_site_occupancy
_atom_site_B_iso_or_equiv
ca      0.500   0.079   0.750    1.00000    0.724
s      0.000   0.077   0.750    1.00000    0.713
o      0.035   0.133   0.587    1.00000    1.120
o      0.243   0.023   0.910    1.00000    1.179
o      0.619   0.183   0.076    1.00000    1.761
h      0.751   0.160   0.258    1.00000    2.745
h      0.594   0.242   0.087    1.00000    3.304
_cell_measurement_wavelength    1.540598
_cell_measurement_radiation   'x-rays'
_cell_measurement_temperature    300.000000
_exptl_crystal_density_diffrn    2.305000
loop_
_pd_peak_d_spacing
_pd_peak_calc_intensity_net
     7.606550        762.96
     5.370055          0.04
     4.743486         13.74
     4.284546       1000.00
     3.803275         98.50
     3.800235         28.33
     3.557625          0.18
     3.173518         39.13
     3.066795        713.70
     2.874210        487.33
     2.869761         30.87
     2.788654         94.90
     2.733227          9.75
     2.688246          4.61
     2.685028        373.59
     2.598126         38.85
     2.592695         20.53
     2.535517          6.05
     2.496185        112.13
     2.475691         14.22
     2.454057         71.08
     2.404936         37.50
     2.371743          1.69
     2.290796          5.02
     2.277793          0.51
     2.219527        126.66
     2.142273         17.78
     2.086859        148.60
     2.081758         43.51
     2.074839         63.59
     2.074155         56.18
     2.048550         47.02
     2.032471          4.92
     1.992674         33.47
     1.963749          4.34
     1.954625         29.44
     1.935246          1.56
     1.914399          6.47
     1.901638         12.80
     1.900118        137.55
     1.898223          0.31
     1.881114        131.49
     1.866241         28.05
     1.837080          2.50
     1.812759        128.47
     1.805715          0.00
     1.799314         56.20
     1.790018         12.45
     1.785366         18.84
     1.778812         96.92
     1.763125          2.96
     1.725190          0.00
     1.724797          1.38
     1.709990          8.67
     1.685496         20.91
     1.664986         62.91
     1.654256          0.93
     1.654212          0.49
     1.646183         35.41
     1.622453         54.50
     1.621579         28.95
     1.621486         20.21
     1.619603          0.29
     1.601061          4.12
     1.599600          0.98
     1.587116          0.30
     1.586759         14.24
     1.585193         18.88
     1.581162         11.16
     1.573582         10.11
     1.552179          7.73
     1.533398         23.43
     1.524144          1.69
     1.522228         13.05
     1.521310          0.73
     1.520838          3.22
     1.512687         12.56
     1.507827          5.26
     1.499136          1.26
     1.497904          0.08
     1.495466          7.26
     1.492336          1.01
     1.487954         10.52
     1.460015          0.32
     1.459986          8.35
     1.459782          8.08
     1.452091          0.74
     1.439893         40.61
     1.437105          2.03
     1.436026          5.52
     1.434881         19.89
     1.434090          0.01
     1.428576          7.69
     1.428182          6.70
     1.422029          0.58
     1.418360         27.58
     1.413236          0.08
     1.410013          2.02
     1.402201         22.28
     1.394327          7.19
     1.386707          8.73
     1.366614         11.51
     1.366091         47.37
     1.356459          3.03
     1.344526          3.47
     1.344123          1.46
     1.342797          1.41
     1.342514          9.32
     1.341866          0.49
     1.335766         17.07
     1.332813          9.51
     1.328953          1.88
     1.326715         16.10
     1.325998          0.00
     1.323819         26.22
     1.321267          1.72
     1.315277          0.42
     1.315211          1.20
     1.312110          0.52
     1.308610          0.02
     1.300963          1.40
     1.299063          0.01
     1.296348          2.73
     1.286296          2.02
     1.283100          0.00
     1.279059         23.04
     1.277922          4.01
     1.272272          2.98
     1.267758          5.26
     1.266745          1.81
     1.266196          1.69
     1.264500          0.51
     1.257106          0.15
     1.252210          0.02
     1.251982         14.36
     1.248782         16.37
     1.248093         14.08
     1.244619         15.58
     1.243345          4.44
     1.243136          0.38
     1.243044          0.73
     1.240468         29.98
     1.237846         10.09
     1.234267         15.44
     1.231784          0.35
     1.231624         18.51
     1.231487          3.16
     1.227854          0.98
     1.227028          2.40
     1.219595          1.37
     1.206859          0.44
     1.204100         21.26
     1.204011         16.96
     1.202468         23.16
     1.199918          0.19
     1.197059          2.98
     1.193760         10.16
     1.185875          0.02
     1.185871          1.40
     1.177580          7.64
     1.175515          7.82
     1.173662          1.67
     1.172476          0.09
     1.162923          1.34
     1.161345          0.01
     1.160395          0.74
     1.159643         14.10
     1.154236         20.57
     1.154022          0.68
     1.153978          0.89
     1.149511          0.00
     1.146647          0.03
     1.145398          8.97
     1.144651          0.13
     1.141982         42.23
     1.141837          0.27
     1.141199          5.12
     1.139356          0.00
     1.138896         13.54
     1.136942         10.05
     1.136659          0.47
     1.135015          0.71
     1.132104          0.75
     1.130333          7.06
     1.126415          0.17
     1.124894          0.51
     1.122086          6.33
     1.120891          0.22
     1.120823          0.00
     1.119901          0.02
     1.119780         11.07
     1.119579          0.05
     1.119267          0.45
     1.114129          0.03
     1.111258          0.12
     1.109763          1.49
     1.100838          1.07
     1.099415          0.09
     1.097316          2.52
     1.093918          0.01
     1.089062          2.85
     1.088274          0.06
     1.087766          0.83
     1.087681         17.18
     1.087160         13.20
     1.086650          2.44
     1.086478          1.36
     1.082196          9.03
     1.081801          1.05
     1.078912          0.51
     1.077143          0.26
     1.074774          0.04
     1.074011          1.18
     1.071686          0.03
     1.071407         10.67
     1.071136          8.36
     1.063638          0.24
     1.063548          3.87
     1.063433         16.37
     1.060506          2.48
     1.057839          1.43
     1.057641          0.01
     1.055722          6.24
     1.054311          0.02
     1.048791          2.15
     1.046853          6.20
     1.046283          0.63
     1.046109          8.52
     1.045137          1.11
     1.043832          0.32
     1.043429          0.43
     1.040879          1.14
     1.040650         12.18
     1.037419          0.90
     1.037077          6.35
     1.036381          2.88
     1.035561          4.61
     1.033690          4.57
     1.033562          8.38
     1.033344          2.96
     1.032772          0.10
     1.027694          0.00
     1.027572          7.06
     1.025631          1.25
     1.025342          6.67
     1.024275          0.90
     1.022265          0.83
     1.021505          0.00
     1.019152          0.19
     1.018403          0.16
     1.016236          6.96
     1.015259          0.05
     1.015019          2.47
     1.014244          0.75
     1.009317          1.85
     1.008738         14.62
     1.008401          0.41
     1.006239          1.82
##############################################################################
###                            Comments                                    ###
##############################################################################
###   Diffraction pattern calculated by Match!. 
###   I/Icor calculated by Match!. 
##############################################################################


